10501
Atoms. Timestep:    200000, BoxSize:   0.912304068485089E+02  0.912304068485089E+02  0.912304068485089E+02
1   0.781054050026479E+01 -0.220454124827119E+02 -0.423556234666794E+00
1  -0.771388833697041E+01  0.209406132590359E+02 -0.131352232889162E+01
1  -0.803794078026642E+01  0.650494470067876E+01 -0.166917852572589E+00
1  -0.424353516534296E+01 -0.859789432683036E+01  0.624869225575142E+00
1   0.238220856730000E+01 -0.140917084512977E+02  0.296175317691958E+00
1   0.597121428021305E+01  0.915926877596068E+00  0.114114802854019E+01
1   0.182003834641701E+02  0.191040635280194E+02  0.188988839736963E+00
1   0.218919235069045E+02  0.682480068508136E+01  0.124971079280804E+01
1   0.184647994369903E+02 -0.261380995480956E+01  0.181123731583047E+01
1  -0.667037896867755E+01  0.806658127581073E+01 -0.275935027621952E+00
1  -0.128554885862999E+02  0.844145713774773E+01 -0.680670360526411E+00
1   0.133748169673262E+02  0.551734606972125E+01  0.104621924840006E+01
1  -0.239683982686892E+02 -0.185353932739402E+02 -0.169073542370764E+01
1   0.158573759569188E+02 -0.135171336588053E+02  0.145628528256202E+01
1   0.238655683440079E+02 -0.170973652627122E+02  0.960276210933608E+00
1   0.388330871993925E+01  0.343431458141609E+02 -0.101725368896713E+01
1  -0.447447032903735E+00  0.332727907351224E+01  0.112035780021882E+01
1   0.176104731431740E+02 -0.106689450382117E+02  0.157189055284836E+01
1  -0.570162570609924E+00 -0.150096332507579E+02  0.148590222311311E+00
1   0.112577225002323E+02 -0.503183570972895E+01  0.182087427415919E+01
1   0.903060292864128E+01 -0.130362866879910E+02  0.966277246020293E+00
1   0.191339289470916E+02 -0.190589147726094E+02  0.712614387960079E+00
1   0.142141948394601E+02  0.122865505767028E+02  0.440166597727442E+00
1   0.154682782491533E+02 -0.247971302626966E+02 -0.178736061760827E+00
1   0.134174445467076E+02  0.365918208458663E+01  0.114912495430032E+01
1   0.229122195144003E+02 -0.771589144254697E+01  0.145629729658055E+01
1   0.356422382746326E+02 -0.133407631652242E+02 -0.332642622964982E-01
1   0.132968176868064E+02  0.461651181041332E+01  0.109276524722569E+01
1   0.848004461090361E+01  0.189865695240827E+02 -0.825928943907840E-01
1   0.386516117323415E+02  0.827368632641749E+01 -0.822251212178963E-01
1   0.349291768481725E+02  0.127335624346630E+02 -0.630641018917959E-01
1   0.102484768461455E+02 -0.159577573773148E+00  0.154184642355083E+01
1   0.109569346898925E+02  0.169655970095248E+02  0.200514637456153E-01
1   0.251011951572468E+02  0.292402237535746E+02 -0.277088694776604E+00
1   0.439943285104223E+02 -0.137330833770030E+01 -0.100169071004471E+01
1  -0.400725600639026E+02  0.215826864190861E+02 -0.168377273628393E+01
1   0.346663837237950E+02 -0.312731485681571E+01 -0.106439880906703E+00
1  -0.254600189386474E+02  0.141595909833280E+02 -0.171797167174363E+01
1  -0.436221953691674E+02  0.184542425061477E+02 -0.921873221930666E+00
1   0.370111582272223E+02 -0.961934321315803E+01 -0.177274193899391E+00
1  -0.398163602437747E+02  0.327740123911583E+01 -0.115777613602814E+01
1   0.315674569598180E+02  0.180203367822866E+02 -0.682166684348577E-01
1   0.415819050561776E+02  0.149311797892316E+02 -0.360088186319492E+00
1   0.276508310888882E+02  0.106824467426607E+02  0.346015293048969E+00
1   0.334088352761590E+02  0.138248858663791E+02  0.126183984013980E+00
1   0.415054970391169E+02  0.656641226185262E+01 -0.291930165950349E+00
1  -0.394170640426730E+02 -0.911427899656418E+01 -0.204876404181226E+01
1   0.403294760859719E+02 -0.618004212889841E+00 -0.771210989278524E+00
1  -0.438020725990473E+02  0.177070552729109E+02 -0.111768405609091E+01
1   0.344627178817911E+02  0.249898001438242E+01 -0.320510951075557E+00
1   0.377401687346470E+02  0.104446032025757E+02 -0.205556721646785E-01
1  -0.313199168573243E+02  0.331734870722116E+01 -0.167760914083705E+01
1  -0.243341800961273E+02 -0.109999678255672E+02 -0.124622882035897E+01
1   0.428297436693271E+02 -0.277270970220294E+01 -0.720649590802344E+00
1  -0.146737536088428E+02 -0.231579747145202E+01 -0.702910743350315E-01
1   0.441609302308695E+02  0.317320089807172E+01 -0.781376698535289E+00
1  -0.378050704344171E+02  0.223949706821111E+01 -0.166205240399114E+01
1   0.232003055970244E+02 -0.178160285480642E+02  0.706116280665091E+00
1  -0.210533633682242E+02 -0.141665750143209E+02 -0.155667854540219E+01
1   0.449169530097608E+02 -0.106529888387779E+01 -0.120966965144527E+01
1  -0.387645600863183E+02 -0.977221635849187E+01 -0.180013056556403E+01
1   0.310373264210735E+02 -0.122278738205253E+02  0.499553539899684E+00
1  -0.177476168458466E+02 -0.141035529430732E+01 -0.687412280919592E+00
1  -0.178354307431695E+02  0.180583056370084E+02 -0.230625351201802E+01
1  -0.239844936389341E+02 -0.849274776728860E+01 -0.115110911425012E+01
1  -0.325771767371468E+02  0.150570829031285E+02 -0.192549965534738E+01
1  -0.205844445731355E+02  0.207779694772543E+02 -0.231810243474470E+01
1  -0.685786312818615E+01  0.107251493947040E+02 -0.722878442494386E+00
1  -0.339948549965872E+02 -0.434154128767543E+01 -0.159014593821638E+01
1  -0.237568696390683E+02 -0.108583232104818E+01 -0.112776361382539E+01
1  -0.317408237501894E+02  0.418077916479343E+01 -0.161315333601576E+01
1  -0.295623649559555E+02 -0.284917961820367E+01 -0.165686616977505E+01
1  -0.893324780506829E+01  0.281320994580117E+01  0.310162246285610E+00
1  -0.325432754099169E+02 -0.302267769384005E+02 -0.142237093846153E+01
1  -0.111103919122176E+02 -0.160209749830410E+02 -0.808048920399668E+00
1  -0.209614364572061E+02 -0.520825837046752E+01 -0.876001184750362E+00
1  -0.441957161660105E+02 -0.271478220574709E+01 -0.129907443678204E+01
1   0.404758206491284E+02  0.510001743731832E+01 -0.463702969410997E+00
1  -0.271051480143463E+02 -0.572387490038087E+01 -0.115400479388083E+01
1  -0.362103999088594E+01  0.128896478694632E+02 -0.369202891929105E+00
1  -0.147217126138717E+02  0.443884801441210E+01 -0.488580656582131E+00
1  -0.348899337453371E+01  0.409059939623958E+01  0.768922973943888E+00
1  -0.221369796172402E+02  0.184047501851945E+02 -0.229009161291890E+01
1  -0.988750207114919E+01 -0.164784708718773E+02 -0.716600265852226E+00
1  -0.186381150694382E+02 -0.137269832689520E+01 -0.749790129684346E+00
1   0.753328724747060E+01  0.170285394246386E+02 -0.358509775165287E-01
1   0.249439660638795E+01  0.313721246737213E+00  0.141052226008352E+01
1  -0.128779045480776E+02  0.146531940867723E+02 -0.153012811528333E+01
1  -0.137323801993456E+02  0.128830057478048E+02 -0.148404932415347E+01
1   0.586279272252760E+01 -0.638175285612315E+01  0.139756316298191E+01
1  -0.184876804983987E+02 -0.224362414528039E+02 -0.160617736525344E+01
1  -0.267863720885512E+02  0.169337309749415E+02 -0.196189776126468E+01
1  -0.116451923207733E+02  0.935736472310247E+01 -0.970026927231124E+00
1   0.491824229883543E+01  0.102096019557199E+02  0.356002511022309E+00
1  -0.219657820092957E+02 -0.167992377419174E+02 -0.148752803116942E+01
1  -0.111370120229860E+02  0.128008427008882E+02 -0.117477782343995E+01
1  -0.206959433866284E+02  0.233541182057385E+02 -0.248963733528891E+01
1  -0.127299836044149E+01  0.167708320450151E+02 -0.325722596492014E+00
1  -0.314194473976218E+02  0.190329606739444E+02 -0.203712001878647E+01
1  -0.269155975398839E+02 -0.657585383469107E+01 -0.119897085788411E+01
1   0.510696002314418E+01 -0.703326376678165E+01  0.110811608073190E+01
1   0.903920357400727E+01  0.599023053484609E+01  0.849058676345229E+00
1   0.131852564511769E+02  0.122304535410566E+02  0.294959957389912E+00
1   0.188099345385270E+02 -0.260926206673701E+02 -0.374318129972820E+00
1   0.831926979663527E+01  0.103375612411405E+02  0.246562246266851E+00
1   0.161170775864948E+02  0.170918884598927E+02 -0.957816567668980E-01
1   0.968459456181376E+01  0.125072385342785E+02 -0.409610944427877E-01
1   0.134717464869301E+02  0.709320098016413E+01  0.671420895357320E+00
1   0.228864903363174E+02  0.250976213274764E+02  0.357973676150219E+00
1  -0.897659108585557E+01  0.452561919995259E+01  0.651656055889824E-01
1  -0.137219730386138E+00  0.168365992832412E+00  0.124366947087145E+01
1   0.340780992914808E+02  0.639723729000833E+00 -0.404513285463148E+00
1   0.373752932495602E+00  0.362174222628167E+01  0.100196079502276E+01
1   0.103342214977138E+02 -0.892560982249365E+01  0.167712026496559E+01
1   0.986554961240181E+01 -0.568529870767071E+01  0.162677806527037E+01
1  -0.442000702497138E+02  0.100193382364393E+02 -0.814114604083329E+00
1  -0.248065604064714E+01 -0.884822616740605E+01  0.735507035241421E+00
1  -0.779622144125632E+01 -0.274709624302441E+01  0.690363009999166E+00
1   0.919486942731259E+01 -0.101113535670390E+02  0.142281803652018E+01
1   0.137691254389156E+02  0.630266879666869E+01  0.823247334701030E+00
1   0.187659172848873E+02  0.215093953512624E+02  0.987757621519040E-01
1   0.580489716105800E+01  0.303044233012490E+02 -0.447310799969495E+00
1   0.150332035947906E+02  0.235478136647838E+01  0.142806428881912E+01
1   0.200943580701170E+02 -0.128273545303716E+02  0.139384189122018E+01
1   0.223409156305297E+02 -0.869473534411058E+01  0.142421462163953E+01
1   0.316146724925267E+02  0.233974762522683E+02 -0.323235039505001E+00
1   0.215363098011530E+02 -0.104734702990078E+02  0.143857706885048E+01
1   0.373993580937211E+02 -0.196412583672109E+02 -0.822751104355426E-01
1   0.117241222306161E+02  0.887439790759444E+01  0.367261367421239E+00
1  -0.131826065714171E+01 -0.123621188888307E+01  0.114821453211855E+01
1   0.276341468530452E+02 -0.907732525371334E+01  0.110526618555832E+01
1   0.298645410548757E+02  0.648102406665985E+01  0.286993928257826E+00
1   0.240070300875390E+02  0.111588325519298E+02  0.513696880373274E+00
1   0.187526832179661E+02  0.298791645529423E+01  0.136332294153630E+01
1   0.147507812537080E+02  0.842840809877469E+01  0.903866139221338E+00
1   0.418289926384929E+02  0.117120272559092E+02 -0.353162859330029E+00
1   0.399415217244792E+02  0.621293097086779E+01 -0.429645753810685E+00
1   0.303686653689728E+02  0.222141682123140E+02 -0.127353588506621E+00
1   0.323565884409328E+02  0.185023211005663E+02 -0.231905981434499E-01
1   0.208180057979967E+02 -0.966339292531620E+01  0.148634365505777E+01
1  -0.429892084591530E+02 -0.157910637867818E+01 -0.128309579317755E+01
1   0.306762462075464E+02  0.206399209673236E+01  0.220420236403071E-01
1   0.939174571697892E+01  0.470141427988298E+01  0.888576924601439E+00
1   0.265847392370232E+02 -0.641475031090034E+01  0.126882610239071E+01
1   0.390491184657624E+02  0.128805338397525E+02  0.596516831962763E-01
1   0.255644698472263E+02 -0.133627067374626E+02  0.987268835004424E+00
1  -0.272769135886570E+02 -0.201740117240850E+02 -0.148512495615720E+01
1   0.387778738827028E+02  0.949218699079882E+01 -0.424980411469528E-01
1   0.399152399160090E+02  0.223072245299492E+00 -0.694292866190934E+00
1   0.390975157156241E+02  0.146660519287224E+02  0.834195725335239E-01
1   0.419036226825252E+02 -0.566227432062911E+01 -0.853518962188367E+00
1   0.279449828237953E+02  0.615713046699873E+01  0.473895657141011E+00
1   0.353729407483183E+02 -0.226771350945919E+01 -0.400483664083773E+00
1  -0.434430421327145E+02  0.499572084225287E+01 -0.102610555015082E+01
1  -0.407967185505834E+02  0.275360841232695E+01 -0.108120189128499E+01
1   0.263951132687225E+02  0.134091551989590E+02  0.360375100366173E+00
1  -0.381752948924665E+02  0.346134305680195E+02 -0.177748014807469E+01
1  -0.265852883328911E+02 -0.137546108943427E+02 -0.134089961953261E+01
1  -0.280749241450691E+02  0.111017709446813E+02 -0.184139057388709E+01
1  -0.304441183614586E+02 -0.833747255265566E+01 -0.166320217987343E+01
1  -0.352300246027293E+02  0.300424750216626E+02 -0.207755970772242E+01
1  -0.320149632206045E+02  0.107762393425990E+02 -0.161705281122101E+01
1  -0.272090974658175E+02  0.795088425998145E+01 -0.185284037395730E+01
1  -0.406560822008399E+02  0.175601661705476E+01 -0.126731819321138E+01
1   0.627804303386911E+01  0.507685749911383E+01  0.835952871662111E+00
1  -0.114656658010722E+02 -0.181263575423332E+02 -0.128680315662435E+01
1  -0.214276967908492E+02 -0.808606950268010E+01 -0.947781247151084E+00
1  -0.114155125654163E+02 -0.217490736520768E+02 -0.149558309857957E+01
1  -0.357362467416784E+02  0.718882568090915E+01 -0.141299220837510E+01
1  -0.353797387337334E+02  0.485831130097448E+01 -0.148658353649260E+01
1  -0.175480951581317E+02  0.296979244803643E+01 -0.582262729680672E+00
1  -0.202059340163054E+02  0.165219987861202E+02 -0.230957245556725E+01
1  -0.106431890051700E+02 -0.664983118912494E+01  0.439450134552864E-01
1  -0.390825499052232E+02  0.183485613943515E+02 -0.152139519557118E+01
1  -0.289655554948605E+02  0.399749516855927E+01 -0.165396579247111E+01
1  -0.172774613419993E+02  0.521577584395971E+01 -0.805674191562569E+00
1   0.458453074933905E+01 -0.117769687838438E+02  0.723748588687715E+00
1  -0.417009868467682E+02 -0.981596014314477E+01 -0.162443594235777E+01
1  -0.138221246541068E+02  0.822244839371180E+01 -0.816531893077530E+00
1  -0.344983073484647E+02  0.175228045075691E+02 -0.176615611034234E+01
1  -0.117054555228349E+02 -0.965069297768041E+01 -0.209714963551756E+00
1  -0.390708669752075E+02  0.880113205965321E+01 -0.105781233666220E+01
1  -0.717002931739644E+01  0.274844753211042E+02 -0.193354597961618E+01
1  -0.492566829844410E+01 -0.229160225986312E+02 -0.102380355862708E+01
1  -0.721628389478173E+01  0.140091744767171E+02 -0.980142318608270E+00
1  -0.348883585830768E+02  0.664670455490302E+01 -0.160777671406122E+01
1   0.443465247040553E+02  0.106071312860245E+02 -0.413426028849465E+00
1   0.110201224315172E+02  0.115501040309020E+02  0.487194316707184E-01
1  -0.219851714689913E+02  0.414517379301274E+01 -0.133701109089971E+01
1  -0.428324949309457E+01  0.323410417816279E+02 -0.176473863371512E+01
1  -0.851536429426397E+01 -0.672294532602985E+01  0.286040919948493E+00
1   0.541051038576086E-01  0.120925612710306E+02  0.413934737927636E-01
1  -0.220177155903701E+00  0.249253887857859E+01  0.125939254831593E+01
1   0.110777758135266E+02  0.106350261271035E+02  0.265789016689729E+00
1  -0.232488751470623E+02  0.607326170556584E+01 -0.129656025726576E+01
1  -0.626076131868772E+01  0.253314185522392E+02 -0.148824437054905E+01
1  -0.102644712093363E+02  0.645145992223261E+01 -0.408214043393087E+00
1  -0.896220020339400E+01 -0.532515110912417E+01  0.380073681816149E+00
1   0.349569834966801E+01 -0.634574226543558E+00  0.118710233415754E+01
1  -0.816462181609771E+01 -0.120310986575327E+02  0.921020122677917E-01
1  -0.100776231306661E+02 -0.739301417542891E+01 -0.110847919087514E+00
1   0.915952895097649E+01 -0.168351357525611E+02  0.433188164549197E+00
1   0.579632829070709E+00 -0.202594900224971E+02 -0.496609338801428E+00
1  -0.777681968390915E+01  0.314239380972430E+02 -0.208081720140724E+01
1  -0.640730492499915E+01 -0.214612767611449E+00  0.683455790371330E+00
1  -0.143950798365536E+01  0.984004847448349E+01  0.218295092933155E+00
1   0.226498636559295E+02  0.242276898349701E+02  0.124016429447142E+00
1   0.223875389367672E+01 -0.234636284938129E+02 -0.960798013690379E+00
1   0.852601835730667E+01 -0.337626973868988E+01  0.165497728331413E+01
1   0.209359126854581E+01  0.242556209791599E+02 -0.556664056393087E+00
1   0.148808588772034E+02 -0.181772540003603E+01  0.179182986536901E+01
1  -0.384372832752519E+00  0.164569520033181E+02 -0.371163101972803E+00
1   0.132493112513273E+02 -0.146233632069458E+02  0.104900601420866E+01
1   0.262754010603155E+02  0.991726654084975E+01  0.386689992833908E+00
1  -0.172654166046779E+02 -0.112427609428274E+02 -0.106882198199903E+01
1   0.115245602048058E+02 -0.723841517974160E+01  0.186003555934326E+01
1   0.135840419946045E+02 -0.113509606230165E+01  0.168448553511443E+01
1   0.974886148040380E+01  0.217956294544898E+01  0.141502533103527E+01
1   0.101776361703264E+02 -0.748199440780067E+01  0.174615534727392E+01
1   0.445663372824189E+01  0.162402773731269E+02  0.377354219744937E-03
1   0.206689136941295E+02  0.133259093174017E+01  0.158083389454846E+01
1   0.671424756452431E+01  0.133036412337837E+02  0.156719397512134E+00
1   0.295593671970052E+02 -0.234101716414084E+01  0.671339368225131E+00
1  -0.250604240819901E+00 -0.122022758492400E+01  0.128825920596684E+01
1   0.407139863800936E+01 -0.359962896637196E+01  0.133746735483311E+01
1   0.373277894461783E+02 -0.883475922808092E+01 -0.262708952751652E+00
1   0.323662419670566E+02  0.139112712487344E+01 -0.319853854390093E+00
1   0.194080301484962E+02  0.164024838357822E+02  0.308984886467922E+00
1   0.418644297227683E+02  0.116428394810093E+01 -0.670921766181890E+00
1   0.211041217603100E+02  0.269488514139332E+02  0.159679131998743E+00
1   0.142728345031548E+02  0.760482455617846E+01  0.648849315313059E+00
1   0.120899379797983E+02  0.490931456336203E+01  0.103722861867346E+01
1   0.377152435095894E+02 -0.123609930763544E+01 -0.454109821942185E+00
1   0.761695179511775E+01  0.573186304442814E+01  0.799083948004609E+00
1   0.391432255768296E+02 -0.223469698022220E+02 -0.410771717130857E+00
1   0.340647692797599E+02 -0.917691771057448E+01  0.161917758197150E+00
1   0.107377314548752E+02  0.971772652483524E+01  0.316010118919759E+00
1   0.178459337734902E+02 -0.199504214155008E+02  0.426889406502549E+00
1   0.324536789763388E+02  0.112315982260679E+02  0.125364007379774E+00
1  -0.382190857164478E+02 -0.125832032711162E+01 -0.172059092008015E+01
1   0.329079209050979E+02  0.148240608327700E+02  0.161265961788304E+00
1   0.226428845708828E+02 -0.156908044394665E+02  0.103888170038887E+01
1   0.440654213984057E+02  0.790727109672286E+01 -0.348988633416179E+00
1   0.134290371353308E+02  0.205322846083099E+02 -0.277396377173854E-01
1   0.251358388766993E+02 -0.656327142705580E+01  0.124622799037755E+01
1  -0.349954028047234E+02  0.869444469538151E+00 -0.168288295116124E+01
1   0.409410439383907E+02 -0.799572307319326E+01 -0.783341356294431E+00
1  -0.393759850167384E+02 -0.426607954979390E+01 -0.174372924693749E+01
1  -0.308066803886952E+02  0.436599867613598E+01 -0.177912395710008E+01
1   0.391655245417686E+02  0.175942119831875E+02 -0.768687621004948E-01
1  -0.317537381355469E+02  0.183119806344544E+02 -0.185969456275627E+01
1   0.140293183673897E+02 -0.177833099651924E+01  0.161418005507177E+01
1   0.363075324849139E+02  0.721657029392537E+01 -0.207003068857255E+00
1   0.214749055813435E+02  0.343962942287165E+01  0.112284076612459E+01
1  -0.321783003798219E+02 -0.101611718766251E+02 -0.148432486920289E+01
1  -0.342953741393128E+02  0.383693967256173E+02 -0.209174304601955E+01
1  -0.229438600518258E+02  0.206258699268519E+02 -0.223942786777490E+01
1   0.341267718009776E+02  0.599456099752840E+01 -0.207529752238084E+00
1   0.455383813856731E+02 -0.443286958238171E+01 -0.130610393190901E+01
1  -0.209212047444689E+02  0.414381951503153E+00 -0.103319692422294E+01
1  -0.142993060523963E+02  0.182633960076057E+02 -0.171746735019832E+01
1  -0.145978558629527E+02  0.763081655427715E+01 -0.914643350133719E+00
1   0.380873980100799E+02  0.573833980913284E+01 -0.399199541063245E+00
1  -0.316296308951504E+02 -0.600127281837930E+01 -0.170052171728024E+01
1  -0.289788897800998E+02 -0.216082330532298E+01 -0.141681459907967E+01
1  -0.290655597714371E+02  0.886211906730691E+01 -0.171174565870046E+01
1  -0.239221699610588E+02  0.100193757308046E+02 -0.175565551378677E+01
1  -0.305471644839376E+02  0.292636063538840E+02 -0.190360136712919E+01
1  -0.122948446774688E+02  0.272348995490215E+01 -0.111770063245731E+00
1  -0.353230629603954E+02  0.176827249344364E+02 -0.172816886678354E+01
1  -0.252607314577428E+02  0.124713890414063E+02 -0.180705131859901E+01
1  -0.402835496111863E+02  0.582938592356192E+01 -0.105152278326459E+01
1  -0.345006875012733E+02  0.112880629591345E+02 -0.156205872459595E+01
1  -0.415753473712360E+02  0.962019787623429E+01 -0.871714741428704E+00
1   0.325725947839903E+02 -0.943489385745353E+01  0.788561121174292E-01
1  -0.441852360871787E+02  0.342334514267989E+02 -0.195710749704579E+01
1  -0.327964333909790E+02  0.246890006097051E+02 -0.187741637353562E+01
1  -0.308479875350189E+02  0.809104340086957E+01 -0.172482518423815E+01
1  -0.136105831573061E+02  0.355612147553065E+02 -0.217927157893006E+01
1   0.118255764518528E+02  0.112191745793778E+02  0.335157652643868E+00
1  -0.123549416268709E+02 -0.162515655879347E+02 -0.108607722727784E+01
1  -0.145706918176625E+02 -0.148252467028815E+02 -0.969470670707045E+00
1  -0.150138251072013E+02  0.116228885365523E+02 -0.148530185829460E+01
1  -0.340758577213961E+02 -0.246165470842712E+00 -0.155508236382369E+01
1  -0.276961568192396E+02  0.701124038491189E+00 -0.156167879994188E+01
1  -0.213440050961808E+02  0.351606673339501E+02 -0.216260648696962E+01
1  -0.130069929883805E+02 -0.197080826798223E+01  0.478669998366938E-01
1  -0.426071115527392E+01  0.257039944176705E+01  0.781367442000429E+00
1  -0.210759693522503E+02 -0.109998903909842E+02 -0.125395734756076E+01
1  -0.132927826734883E+02 -0.212118328963437E+02 -0.131970341320929E+01
1  -0.283580367678706E+02 -0.167368051020419E+02 -0.143272477023365E+01
1   0.883255479254885E+01 -0.202789320689490E+02 -0.526010733717946E-01
1  -0.148246169459409E+02  0.253742932893539E+02 -0.252995823516686E+01
1  -0.279629885834689E+02 -0.195767361891593E+02 -0.140758543057083E+01
1   0.342345417079358E+01  0.583851057990767E+01  0.653488209847063E+00
1  -0.887269401394195E+01  0.113482474706745E+01  0.400001379885324E+00
1  -0.114953077007981E+02 -0.151040319803695E+02 -0.629534408631509E+00
1  -0.245253330727595E+02 -0.161739151369249E+02 -0.144105541734525E+01
1  -0.129671191254412E+02 -0.198475961174341E+02 -0.135069797502479E+01
1  -0.982084388089622E+00 -0.735056716696058E+01  0.831169276349754E+00
1  -0.239239835074865E+02  0.115428927305091E+01 -0.126446556861947E+01
1  -0.225406161369073E+02  0.527226228476111E+01 -0.166407615575679E+01
1  -0.244069971718439E+02 -0.676479788018435E+01 -0.905264637201056E+00
1  -0.442247799822048E+01  0.280720631938968E+02 -0.143978321863631E+01
1   0.710921777714347E+01  0.652630655199216E+01  0.669309150197467E+00
1  -0.107364125279321E+02  0.238007377426229E+02 -0.189281567138119E+01
1   0.541804347855919E+01  0.217064470780261E+01  0.129098463317095E+01
1  -0.109015492796514E+02  0.542198607273917E+01 -0.318414837941176E+00
1  -0.121187072706921E+02  0.228447740320594E+02 -0.193633327590734E+01
1   0.814952481166737E+01  0.391471700529301E+01  0.963963195545886E+00
1  -0.963638558677772E+00  0.105231188868922E+02 -0.153592927358161E-01
1   0.257042934927083E+02  0.181500372682876E+02 -0.110693914237184E+00
1  -0.877799377922231E+01 -0.159576215850394E+02 -0.501897185904779E+00
1  -0.633409110165190E+01 -0.158390651649395E+02 -0.192429332139277E+00
1   0.157026759477304E+02  0.195228794318143E+02  0.842716447842840E-01
1   0.307297978502014E+02  0.892716382142839E+01  0.200653102225655E+00
1   0.219849360118304E+02 -0.121214354184261E+02  0.143775458943280E+01
1   0.835610244006243E+01 -0.330784830008100E+00  0.147405841687322E+01
1   0.179109796290819E+02 -0.610266186693497E+01  0.185321823190493E+01
1   0.375683098438739E+02 -0.258471036765760E+02 -0.639412829992973E+00
1   0.172931543039928E+02 -0.228080218304145E+01  0.169572233332385E+01
1   0.993392819639988E+01  0.669191545776972E+01  0.612699567411499E+00
1   0.740225577546345E+01  0.354372394435556E+01  0.988895522917522E+00
1   0.305357574712568E+02  0.137039501491507E+02  0.824531511468853E-02
1   0.316190651595612E+02  0.300926800836291E+02 -0.221377132421559E+00
1   0.257841404576172E+02  0.370458192701687E+01  0.759087913449566E+00
1   0.258890185545963E+02 -0.702610785793492E+01  0.134153473372022E+01
1   0.190533567012231E+02  0.706967871069736E+01  0.114596763398798E+01
1   0.801269710599137E-01  0.106107354762328E+02 -0.291213198823861E-01
1   0.181094534745797E+02  0.933865695455520E+00  0.156922893431800E+01
1   0.792410209390593E+01 -0.489348515562455E+01  0.165335351704571E+01
1  -0.354413972906611E+02 -0.138062213668416E+02 -0.165730672230853E+01
1   0.661661411092689E+01 -0.802362820280742E+01  0.128740730457727E+01
1   0.280773404082556E+02  0.113897345444374E+02  0.118118102806248E+00
1   0.256950868709730E+02  0.111293376883458E+02  0.368515935041519E+00
1   0.168582762261926E+02  0.279950976729171E+00  0.162219924443028E+01
1   0.408777716463520E+02 -0.166437297709407E+01 -0.897193548256185E+00
1   0.188765261659598E+02 -0.653602240916431E+01  0.172391763663894E+01
1   0.976703870722718E+01 -0.160862140631638E+02  0.436407658047477E+00
1   0.104031217577892E+02 -0.220204718202254E+01  0.176310327998391E+01
1   0.214163763606038E+02  0.187613780840965E+01  0.143077965786043E+01
1   0.246176672718362E+02 -0.799815283617116E+00  0.147929173160408E+01
1   0.285275538518022E+02 -0.220781636331747E+02  0.662055078849536E-01
1   0.395832636983288E+02  0.284518814388291E+02 -0.987832792942781E+00
1   0.412916156775890E+02  0.511614415146100E+01 -0.409938406287886E+00
1   0.224006699260570E+02 -0.500119328113111E+01  0.145711295984034E+01
1   0.236621164457496E+02  0.945459809813105E+01  0.650691629307247E+00
1   0.137473723480118E+02  0.130447948296737E+02  0.480686209831333E+00
1   0.269192401116874E+02 -0.349981949934126E+01  0.140477330167408E+01
1   0.438548229261462E+02  0.206095709914060E+02 -0.719168320495356E+00
1  -0.446781927181759E+02 -0.697358728253696E+01 -0.162910386100299E+01
1  -0.444653809538361E+02  0.147135369944564E+02 -0.921245558536101E+00
1   0.266327864365549E+02  0.336454534278154E+01  0.779195312834571E+00
1  -0.300606537270248E+02  0.242119795584509E+02 -0.187175146007583E+01
1  -0.308617343186220E+02  0.564395899811442E+01 -0.179275231166155E+01
1  -0.380520377232763E+02  0.103645410803816E+02 -0.108467460128699E+01
1   0.217754989806089E+02 -0.432245267404462E+01  0.158335197446333E+01
1  -0.294664274751342E+02  0.115341339621873E+02 -0.169109995529151E+01
1  -0.399799700886877E+02  0.152098056130350E+02 -0.112064596372578E+01
1  -0.400857064655245E+02  0.239158110893533E+01 -0.119120270390123E+01
1  -0.311602440880882E+02  0.102191116051023E+01 -0.163983214856525E+01
1  -0.118364263710033E+02 -0.118671550631623E+02 -0.298585727020200E+00
1  -0.423664184954484E+02  0.476479434110632E+01 -0.862869205972975E+00
1  -0.391257468337452E+02  0.327788157054616E+02 -0.196497668430467E+01
1  -0.328037724204870E+02  0.280451576208031E+02 -0.202671604597518E+01
1  -0.372215198259035E+02 -0.407092347500106E+01 -0.190492398142925E+01
1   0.291551069173806E+02 -0.657316937398843E+01  0.842993144370670E+00
1  -0.216108682173863E+02  0.123361072941960E+02 -0.189555381338099E+01
1  -0.398378131520842E+02  0.786407590606016E+00 -0.128372278568323E+01
1  -0.150513991584365E+02  0.138818345732618E+02 -0.169130225659280E+01
1  -0.204234299274085E+02  0.186147617420583E+02 -0.223372652349690E+01
1  -0.315855631525603E+02  0.744864559334913E+01 -0.162798656293486E+01
1  -0.313824118296407E+02  0.496442463166620E+01 -0.168452975604839E+01
1  -0.384035790700181E+02  0.284364182538967E+02 -0.199164327881422E+01
1  -0.266222066307532E+02 -0.981576618852204E+01 -0.141258325345027E+01
1  -0.653316647965319E+01  0.351859928855919E+01  0.379663181593629E+00
1  -0.179045829167472E+02 -0.978773720640073E+01 -0.983512848754752E+00
1  -0.368280478181682E+02  0.723255497568035E+01 -0.136686907342130E+01
1  -0.375207770752640E+02  0.175032241525323E+02 -0.173425964868082E+01
1  -0.340464908288678E+02  0.142585708343055E+02 -0.171225606542648E+01
1  -0.321898352336959E+01 -0.674583666070565E+00  0.106838489463335E+01
1  -0.246976999315136E+02  0.137903303627272E+01 -0.159683414722293E+01
1  -0.192644464314553E+02  0.643259141932438E+01 -0.122034859608222E+01
1  -0.189970885049887E+02  0.381404909855480E+01 -0.889510288720004E+00
1  -0.138614455285027E+02 -0.142687962279872E+02 -0.795650681933805E+00
1  -0.930682676125675E+01  0.518861699047847E+01 -0.146726712164978E+00
1  -0.472798277413552E+01  0.142118396625649E+02 -0.823556505408326E+00
1  -0.114575569935710E+02  0.102983414535434E+02 -0.961368803820612E+00
1  -0.139395758467375E+02  0.711396314116283E+01 -0.874141977767377E+00
1  -0.336049488538728E+02 -0.113561256088478E+02 -0.159136090462446E+01
1   0.148477301766522E+01  0.204075997991511E+02 -0.467321637609107E+00
1   0.718853190269146E+01 -0.133360072247935E+01  0.162056134225946E+01
1   0.844683086543171E+01  0.543119528642528E+01  0.721947284433665E+00
1  -0.152446039850340E+02  0.353407297634890E+02 -0.215033391503927E+01
1  -0.117079749117827E+02  0.178509770781489E+02 -0.139811244062393E+01
1  -0.272379520998651E+02 -0.180743194288614E+02 -0.144031624857864E+01
1  -0.300296766646281E+01 -0.156908364030922E+01  0.991581674415459E+00
1   0.762876286962306E+01 -0.664509633848271E+01  0.159290990707961E+01
1  -0.135465795944163E+02 -0.135856937210312E+02 -0.715899849161102E+00
1  -0.666413041297310E+01 -0.400596315627245E+01  0.760475320679913E+00
1  -0.137537147699149E+02  0.144471059064677E+02 -0.168604791796515E+01
1  -0.169511719914490E+02  0.791267314132242E+01 -0.109999121772599E+01
1   0.158599184197631E+02  0.111751924737671E+02  0.550533891137697E+00
1  -0.724476162169152E+01  0.339165943176568E+02 -0.211535441033634E+01
1  -0.578558351564356E+01 -0.267445805140551E+02 -0.132512386336410E+01
1  -0.803197726494445E+01 -0.187921044248571E+02 -0.896204723254039E+00
1  -0.153542992216059E+02  0.336285345017304E+02 -0.245472617421557E+01
1   0.847601549257203E+01  0.115280359183277E+01  0.139505364405424E+01
1   0.156656914223859E+02 -0.206195662630651E+02  0.177051218505128E+00
1   0.191672389531436E+02  0.808329050871665E+01  0.803278580216468E+00
1   0.533457060928952E+01  0.562654662221107E+01  0.648594102085670E+00
1  -0.174055481442731E+02 -0.674578095528787E+01 -0.871657284947654E+00
1   0.107044301465411E+02 -0.408677151875055E+01  0.205335748064534E+01
1   0.162089070578547E+02 -0.679550763089800E+01  0.190985274105327E+01
1   0.136878796443795E+02  0.164754805148831E+02 -0.110498557686462E+00