677
Atoms. Timestep:    100000, BoxSize:   0.200000000000000E+03  0.200000000000000E+03  0.200000000000000E+03
2   0.804521759986073E+00  0.710150530115941E+00  0.711451601488515E+01
2   0.189328971576011E+01  0.570881332060950E+00  0.687476590002211E+01
2   0.139127906934236E+01  0.161802875804225E+01  0.679256547039692E+01
2   0.282566426671279E+00  0.169795513133733E+01  0.698477183654437E+01
2  -0.313752036804787E+00  0.672637314196572E+00  0.741394344950683E+01
2   0.215744283570541E+00 -0.421870808786849E+00  0.733984864245073E+01
2   0.133152965448435E+01 -0.373694355785695E+00  0.706764070752924E+01
2   0.293435232445731E+01  0.443975153887551E+00  0.651172481491501E+01
2   0.246338703535411E+01  0.157754639717154E+01  0.625110986361792E+01
2   0.181209807504517E+01  0.251486016333813E+01  0.621114588947369E+01
2   0.781694653705492E+00  0.273701935351418E+01  0.655218250011441E+01
2  -0.356168029623489E+00  0.263107483221359E+01  0.699112781892404E+01
2  -0.100408207670404E+01  0.164860159775144E+01  0.708975354882599E+01
2  -0.148490107092633E+01  0.659127500284208E+00  0.728864776112885E+01
2  -0.983800207523887E+00 -0.323489256898686E+00  0.726125373571681E+01
2  -0.410657610514925E+00 -0.123807815382337E+01  0.771557854946674E+01
2   0.710606967297351E+00 -0.142166955755865E+01  0.710544887144603E+01
2   0.183698176263679E+01 -0.147079836885122E+01  0.690224313449673E+01
2   0.254162421176598E+01 -0.561733275774875E+00  0.671814390987415E+01
2   0.369980683701083E+01  0.475761551548773E+00  0.572055631996416E+01
2   0.357741305013968E+01  0.165028785323685E+01  0.585546257229628E+01
2   0.314591564924680E+01  0.267840167838361E+01  0.587315473381083E+01
2   0.230329068952190E+01  0.343887361021396E+01  0.585586254501505E+01
2   0.126165605780201E+01  0.376896432347378E+01  0.586198629029844E+01
2   0.182107699455441E+00  0.380038175636708E+01  0.608535821829847E+01
2  -0.884667085488966E+00  0.361257040236784E+01  0.665082888076958E+01
2  -0.174464870798899E+01  0.273632923630358E+01  0.675289380563736E+01
2  -0.227934238809573E+01  0.177352553989597E+01  0.704610189295657E+01
2  -0.261156740430696E+01  0.779710182634824E+00  0.759922866133324E+01
2  -0.221162900577831E+01 -0.317023728376282E+00  0.726185753811138E+01
2  -0.172799560227460E+01 -0.133384207090879E+01  0.738518760636131E+01
2  -0.732078809198450E+00 -0.215311133013071E+01  0.719152421529321E+01
2   0.310750150674036E+00 -0.256965421010775E+01  0.715176862592932E+01
2   0.132532879729549E+01 -0.251775013346403E+01  0.677203244387625E+01
2   0.243796459789203E+01 -0.236915360281764E+01  0.659659580921472E+01
2   0.315336478072906E+01 -0.166344392618955E+01  0.613210147194166E+01
2   0.365386477395235E+01 -0.675266612680109E+00  0.599407244646269E+01
2   0.469170944167370E+01  0.474367281444852E+00  0.507323037883454E+01
2   0.428468047653344E+01  0.149612672079022E+01  0.489368626753397E+01
2   0.384882705996480E+01  0.252298249005550E+01  0.499786353227352E+01
2   0.328536195343346E+01  0.345829251743378E+01  0.498590977888483E+01
2   0.274846718263266E+01  0.436035764640092E+01  0.523266201271228E+01
2   0.168255397007222E+01  0.465498955741234E+01  0.518149539944717E+01
2   0.586991507928405E+00  0.480728199755913E+01  0.549681004547986E+01
2  -0.527460111416016E+00  0.463578964271695E+01  0.571737765972904E+01
2  -0.152722442083600E+01  0.439543835612700E+01  0.609469128322798E+01
2  -0.240135134346059E+01  0.375167531425478E+01  0.620388133174471E+01
2  -0.282435884035662E+01  0.274064717368307E+01  0.656000725215267E+01
2  -0.347327765095113E+01  0.182058248398306E+01  0.665166969568231E+01
2  -0.352889862286286E+01  0.761606654978411E+00  0.687659847001666E+01
2  -0.345077163041527E+01 -0.307641403023969E+00  0.706730613777723E+01
2  -0.277755204537644E+01 -0.127915397638652E+01  0.699758406835088E+01
2  -0.244539720250709E+01 -0.230146052837143E+01  0.729777840604094E+01
2  -0.156764336104029E+01 -0.304200623473194E+01  0.703192642395453E+01
2  -0.503170881563665E+00 -0.340989384229391E+01  0.686677614770936E+01
2   0.606769227555360E+00 -0.348789771386127E+01  0.647338006648797E+01
2   0.168158384355014E+01 -0.363690158063612E+01  0.612399693484037E+01
2   0.296029221686872E+01 -0.338553186397741E+01  0.619719505665467E+01
2   0.380658329470440E+01 -0.261548211470817E+01  0.605644665491250E+01
2   0.421964085931607E+01 -0.172274138831880E+01  0.555549186607689E+01
2   0.457739370371522E+01 -0.748351787510489E+00  0.513104645389261E+01
2   0.537659210597087E+01  0.313962257393076E+00  0.425783809285651E+01
2   0.511452431473514E+01  0.143536902062852E+01  0.402151885612784E+01
2   0.455016166504097E+01  0.238015322575037E+01  0.414988194664307E+01
2   0.414315857080091E+01  0.340308502121802E+01  0.420327625358235E+01
2   0.371423809608230E+01  0.438335353071875E+01  0.451458101426669E+01
2   0.281978910193149E+01  0.506650309036725E+01  0.439495551520928E+01
2   0.174616339598713E+01  0.556791249879457E+01  0.448359807698316E+01
2   0.612427901621445E+00  0.576882074161883E+01  0.470924698813325E+01
2  -0.405913754923508E+00  0.546626377241631E+01  0.500297191474451E+01
2  -0.143649096113705E+01  0.522678455248241E+01  0.535734390747705E+01
2  -0.247418004196751E+01  0.478833222023459E+01  0.566834827963778E+01
2  -0.340112319376463E+01  0.415409144151802E+01  0.568616214886319E+01
2  -0.380959330640018E+01  0.310410227571579E+01  0.598781534980182E+01
2  -0.447898989062106E+01  0.213293849276086E+01  0.617253650702712E+01
2  -0.453988433430476E+01  0.111775235357726E+01  0.659476545647802E+01
2  -0.431940820885346E+01  0.281460264333413E-01  0.650128944116921E+01
2  -0.438638132936127E+01 -0.108018815070545E+01  0.663014581287729E+01
2  -0.359905240755980E+01 -0.198038361852815E+01  0.663770975652554E+01
2  -0.324716658316843E+01 -0.301882551790572E+01  0.689756583098100E+01
2  -0.240418256211257E+01 -0.370881002048061E+01  0.662790827633193E+01
2  -0.134824705719530E+01 -0.393598676533616E+01  0.640427503976731E+01
2  -0.287382717330401E+00 -0.433482370498480E+01  0.624239533236560E+01
2   0.691551012735049E+00 -0.451613980888962E+01  0.566831901168188E+01
2   0.186601973397986E+01 -0.461573701669107E+01  0.557110383096384E+01
2   0.290385335066537E+01 -0.431586674335868E+01  0.551082109997741E+01
2   0.368126186445585E+01 -0.351343289264229E+01  0.535259112464077E+01
2   0.456501189811253E+01 -0.273283923546117E+01  0.508933779617902E+01
2   0.497441388490061E+01 -0.175424115150735E+01  0.471111273893020E+01
2   0.544194507725764E+01 -0.836203082236458E+00  0.428063563469594E+01
2   0.616142987850193E+01  0.251253542002657E+00  0.343177713259203E+01
2   0.578308545209599E+01  0.130200055072305E+01  0.307989630937989E+01
2   0.551804706458309E+01  0.233649781317020E+01  0.352123328119644E+01
2   0.505230738950708E+01  0.332947877395279E+01  0.344329530882593E+01
2   0.445127396548768E+01  0.430798326363087E+01  0.361626520537032E+01
2   0.352802672837584E+01  0.504161497025193E+01  0.355019302442228E+01
2   0.293045311750037E+01  0.594469004760220E+01  0.369841493645450E+01
2   0.188373186961271E+01  0.638073887042458E+01  0.363017230599476E+01
2   0.707157426052888E+00  0.632917389211605E+01  0.368274697703761E+01
2  -0.277606351305007E+00  0.638672816687032E+01  0.428243033219822E+01
2  -0.134559035096935E+01  0.598732779869227E+01  0.454220500058331E+01
2  -0.233482540942826E+01  0.548339095422077E+01  0.476956156020177E+01
2  -0.330106369362186E+01  0.506162553622470E+01  0.498849553045114E+01
2  -0.429686339963142E+01  0.462081155075592E+01  0.521543877320935E+01
2  -0.461924001548628E+01  0.349698004463047E+01  0.528566402570651E+01
2  -0.526493156526718E+01  0.261770974905090E+01  0.548550969114357E+01
2  -0.513694129791028E+01  0.148666509250110E+01  0.553024785005507E+01
2  -0.527608722251388E+01  0.494988830985706E+00  0.603677000416808E+01
2  -0.527499070172934E+01 -0.615314514017777E+00  0.614912202267842E+01
2  -0.528324626888769E+01 -0.172122248847710E+01  0.621874613318295E+01
2  -0.457773604073090E+01 -0.258272669096906E+01  0.603413137657146E+01
2  -0.424438078636373E+01 -0.359751486653687E+01  0.635412271234992E+01
2  -0.330824320614206E+01 -0.419070003167092E+01  0.618817413417216E+01
2  -0.232025887872242E+01 -0.461904372917546E+01  0.594748290526108E+01
2  -0.132169218244756E+01 -0.490092535350844E+01  0.557732925542567E+01
2  -0.215242645605939E+00 -0.532197557520420E+01  0.566444161885248E+01
2   0.804845270632453E+00 -0.557580485864466E+01  0.524981261706407E+01
2   0.174973635339882E+01 -0.551197634943464E+01  0.467580225485002E+01
2   0.271565965741198E+01 -0.497521337508277E+01  0.461317635832133E+01
2   0.364183847502579E+01 -0.434579287420380E+01  0.463227383902799E+01
2   0.450355574882887E+01 -0.364021164446672E+01  0.445166291105339E+01
2   0.508113910401956E+01 -0.274535682348592E+01  0.406989711217172E+01
2   0.565311598172909E+01 -0.185317434628700E+01  0.373964178085156E+01
2   0.621222839651817E+01 -0.912328672907270E+00  0.353623724256307E+01
2   0.672657948291990E+01  0.154803416090398E+00  0.245214631497809E+01
2   0.670749244074551E+01  0.125601960278958E+01  0.249096200739434E+01
2   0.633025926402197E+01  0.234250412174461E+01  0.264561405142887E+01
2   0.566931123004624E+01  0.321239963165199E+01  0.252253956555482E+01
2   0.490378179376966E+01  0.409015643311658E+01  0.259503215019398E+01
2   0.426866386719480E+01  0.501756949008688E+01  0.272129967045048E+01
2   0.348415036573005E+01  0.586084411989474E+01  0.275622165275427E+01
2   0.255376752152878E+01  0.647537870263356E+01  0.277952157760050E+01
2   0.162007197045079E+01  0.708093211802538E+01  0.283753048621065E+01
2   0.497882587513433E+00  0.720114701972727E+01  0.295732910971702E+01
2  -0.552438544000164E+00  0.692081470790407E+01  0.312929288434928E+01
2  -0.147427180149006E+01  0.669108756365405E+01  0.363873540278417E+01
2  -0.246873736259886E+01  0.625793674642773E+01  0.393819902197579E+01
2  -0.331492293795759E+01  0.556318611660520E+01  0.400895624912754E+01
2  -0.430971842454741E+01  0.514274075546947E+01  0.418594237900318E+01
2  -0.501851727410684E+01  0.416226162733353E+01  0.445160197440291E+01
2  -0.568762818228558E+01  0.339015094924554E+01  0.482701841151522E+01
2  -0.628729965253325E+01  0.251302217131391E+01  0.510279047505417E+01
2  -0.600981393489952E+01  0.148198170119904E+01  0.481405148604500E+01
2  -0.607321560391826E+01  0.408075319100727E+00  0.500493270202567E+01
2  -0.615579699424673E+01 -0.602977909451169E+00  0.538549925552905E+01
2  -0.615901275743302E+01 -0.167646927009706E+01  0.550542756014597E+01
2  -0.565004484576409E+01 -0.264135519619617E+01  0.560282831361489E+01
2  -0.500154610495511E+01 -0.359664979234954E+01  0.549823627184497E+01
2  -0.423927110547297E+01 -0.457648764534726E+01  0.570260171425429E+01
2  -0.322315481114164E+01 -0.518962116351206E+01  0.566395525241908E+01
2  -0.223952228961870E+01 -0.561311540513558E+01  0.524811455524417E+01
2  -0.118924905798477E+01 -0.583717700868757E+01  0.479090136127930E+01
2  -0.151416260065344E+00 -0.616121287936961E+01  0.459876138863187E+01
2   0.959151246484565E+00 -0.634960481059352E+01  0.447439099904841E+01
2   0.208832658670738E+01 -0.651041199625703E+01  0.431800247729918E+01
2   0.237579537612946E+01 -0.558677715767624E+01  0.375919598569480E+01
2   0.341868013749241E+01 -0.510664417339193E+01  0.375888156445707E+01
2   0.430484000289406E+01 -0.445084412801829E+01  0.360594320221610E+01
2   0.508509331866230E+01 -0.369165281976835E+01  0.346647986898970E+01
2   0.569045525034361E+01 -0.280591215388822E+01  0.315529213677533E+01
2   0.628506333039319E+01 -0.197865660543359E+01  0.279592620595048E+01
2   0.631478954098948E+01 -0.943465384386014E+00  0.242767389468073E+01
2   0.732245942459779E+01  0.225950064756214E+00  0.149078768680238E+01
2   0.653608054860649E+01  0.101513994035132E+01  0.136291420648034E+01
2   0.676849201435067E+01  0.214282821467836E+01  0.142839866004717E+01
2   0.603281158136651E+01  0.308354322830041E+01  0.132103649283845E+01
2   0.550398494768057E+01  0.404334229310945E+01  0.158976465067665E+01
2   0.469208322844660E+01  0.480052878613692E+01  0.169282017893588E+01
2   0.401960250653570E+01  0.568387574489129E+01  0.177576131302277E+01
2   0.306570615959744E+01  0.628203221770991E+01  0.181286568922314E+01
2   0.220036940701667E+01  0.697656148567402E+01  0.178078382658018E+01
2   0.103556946867574E+01  0.731915334363125E+01  0.192456654260843E+01
2  -0.494031110772874E-01  0.720301459753466E+01  0.199745713870946E+01
2  -0.115430438270657E+01  0.714262639158927E+01  0.211130158294925E+01
2  -0.217029824758417E+01  0.712986767119977E+01  0.265572530912295E+01
2  -0.308099783637948E+01  0.646418972717621E+01  0.295137306298567E+01
2  -0.403666287187061E+01  0.619207972948916E+01  0.339849588895946E+01
2  -0.482265856865933E+01  0.544102226815166E+01  0.323298620766443E+01
2  -0.560738392108511E+01  0.487883226800988E+01  0.372300155304853E+01
2  -0.603907320681058E+01  0.394067095291413E+01  0.392930528032430E+01
2  -0.664846574715824E+01  0.308540627845796E+01  0.419358251729586E+01
2  -0.688268787142240E+01  0.199540314226064E+01  0.432895270358341E+01
2  -0.704176655645529E+01  0.924689987835428E+00  0.463277773769708E+01
2  -0.702536519487681E+01 -0.164095787731732E+00  0.465453181302863E+01
2  -0.686970251580834E+01 -0.125320411220961E+01  0.473531891263972E+01
2  -0.666100137589125E+01 -0.236816601395583E+01  0.479044993137631E+01
2  -0.578685735251324E+01 -0.311776638934013E+01  0.460421281757409E+01
2  -0.541027945245441E+01 -0.421108080903880E+01  0.455479429592131E+01
2  -0.461533263638700E+01 -0.496916395799801E+01  0.473523485894417E+01
2  -0.361333019030826E+01 -0.555186451310006E+01  0.464145185490358E+01
2  -0.281457331144229E+01 -0.629875226056999E+01  0.453460499648530E+01
2  -0.180075822182282E+01 -0.649871391409804E+01  0.412562025445675E+01
2  -0.797534452305917E+00 -0.674003583251997E+01  0.370829784107419E+01
2   0.287791927874476E+00 -0.690466249138413E+01  0.371371655373166E+01
2   0.139061193900784E+01 -0.693191118718529E+01  0.355878101897910E+01
2   0.241179654774121E+01 -0.669839826378075E+01  0.324568833677495E+01
2   0.313001969716079E+01 -0.588652691187159E+01  0.299912001395390E+01
2   0.403348483509044E+01 -0.522675500696004E+01  0.282792632715179E+01
2   0.493940522233673E+01 -0.458111327916876E+01  0.270388889705073E+01
2   0.546325867089040E+01 -0.360500100558545E+01  0.240289015410294E+01
2   0.613452617575642E+01 -0.284029225797873E+01  0.203568765996841E+01
2   0.671869347427841E+01 -0.198386512661799E+01  0.165996262319669E+01
2   0.708696874858497E+01 -0.892355786536272E+00  0.149932115840366E+01
2   0.680327119368937E+01 -0.279142497315195E+00  0.446544864588310E+00
2   0.712330465267286E+01  0.790798540300846E+00  0.477666069740562E+00
2   0.689156487971030E+01  0.193673613452864E+01  0.340870494115601E+00
2   0.619995536924981E+01  0.284566602452207E+01  0.156137280685878E+00
2   0.592804051922950E+01  0.389522694398481E+01  0.472573197396720E+00
2   0.519618527735029E+01  0.473030521707794E+01  0.556367099345823E+00
2   0.439715775436967E+01  0.543922260855733E+01  0.779745844239150E+00
2   0.369765816442490E+01  0.626342089842683E+01  0.902354188287582E+00
2   0.267566291611137E+01  0.670955174659511E+01  0.834698665560123E+00
2   0.156833251683043E+01  0.716215004713240E+01  0.836028283161207E+00
2   0.427036672562665E+00  0.747416928773243E+01  0.926825397006046E+00
2  -0.665050586552793E+00  0.748980196670157E+01  0.116656490350213E+01
2  -0.170378559449747E+01  0.713637190388487E+01  0.109879143530070E+01
2  -0.251855228378251E+01  0.758943523283945E+01  0.166287699949494E+01
2  -0.342836656416608E+01  0.696807926654760E+01  0.190452880161255E+01
2  -0.440477321248387E+01  0.664001294034655E+01  0.234089853922721E+01
2  -0.541710253492738E+01  0.620507362303490E+01  0.261726509889225E+01
2  -0.613453517400866E+01  0.543984335411064E+01  0.287428614839095E+01
2  -0.669203501020318E+01  0.454058168500901E+01  0.319272406398488E+01
2  -0.702281694590087E+01  0.350837236317698E+01  0.320263773760795E+01
2  -0.723659995095429E+01  0.246425732293085E+01  0.341432145677760E+01
2  -0.746467791083336E+01  0.133302567324509E+01  0.362341284471106E+01
2  -0.748840462366794E+01  0.223227363049755E+00  0.372856877636752E+01
2  -0.759725012938795E+01 -0.862430587962677E+00  0.395533219407073E+01
2  -0.753455128274940E+01 -0.199935110560940E+01  0.405463887919179E+01
2  -0.675964075057378E+01 -0.282111042986368E+01  0.379428887761369E+01
2  -0.627818001989138E+01 -0.384180810200788E+01  0.391671321930737E+01
2  -0.603948586902297E+01 -0.499596057971023E+01  0.413365741738509E+01
2  -0.509037523510407E+01 -0.550583123007199E+01  0.392692916293561E+01
2  -0.404585276696090E+01 -0.598844865346429E+01  0.365942990586124E+01
2  -0.327199062730858E+01 -0.680554861972529E+01  0.363145802204800E+01
2  -0.230667701187888E+01 -0.723707511655199E+01  0.336767015133416E+01
2  -0.127250222490274E+01 -0.769613364230802E+01  0.319474350109053E+01
2  -0.308031756016192E+00 -0.725990397593565E+01  0.284869449486932E+01
2   0.791586885117026E+00 -0.741936911101993E+01  0.271324467554275E+01
2   0.185782237766515E+01 -0.721266004437678E+01  0.243605960848493E+01
2   0.292391145838048E+01 -0.674433848652805E+01  0.218596222025568E+01
2   0.387562987352973E+01 -0.613000024924606E+01  0.216817010732714E+01
2   0.460170999831173E+01 -0.530292328796551E+01  0.188256652711332E+01
2   0.523350674621533E+01 -0.445130084719456E+01  0.164192889480999E+01
2   0.577979147492048E+01 -0.358379923335431E+01  0.130013578638203E+01
2   0.635476638053807E+01 -0.271360990116085E+01  0.919891138887884E+00
2   0.728129069280835E+01 -0.216027102541850E+01  0.585083497890236E+00
2   0.754649248961549E+01 -0.108148436512393E+01  0.507883052157096E+00
2   0.742099660866128E+01 -0.343354469396149E-01 -0.548722696364934E+00
2   0.697524330287432E+01  0.957941939421916E+00 -0.691187037569702E+00
2   0.691803246386603E+01  0.203098750960156E+01 -0.922926587991753E+00
2   0.648908493786040E+01  0.300903600233045E+01 -0.103290232352384E+01
2   0.599439694988893E+01  0.389936147942140E+01 -0.653706752778596E+00
2   0.524638655832213E+01  0.474448769331842E+01 -0.739193527203300E+00
2   0.444171478793161E+01  0.539798467602593E+01 -0.382761402728397E+00
2   0.372620481291892E+01  0.622733957572324E+01 -0.248518762742825E+00
2   0.285864262248657E+01  0.692569450915364E+01 -0.277547068064506E+00
2   0.184247778088548E+01  0.751349176257572E+01 -0.364958624488942E+00
2   0.813225939131559E+00  0.769633303593745E+01 -0.101550118039300E+00
2  -0.214523158704138E+00  0.735404437911607E+01  0.785037680423398E-02
2  -0.126211346857000E+01  0.781359800937961E+01  0.272852268620566E+00
2  -0.239647502927793E+01  0.784475909144032E+01  0.556430771830848E+00
2  -0.333389843637170E+01  0.741181149101273E+01  0.895786288947787E+00
2  -0.427657430951233E+01  0.690330839264432E+01  0.121177660356561E+01
2  -0.511390492465564E+01  0.626969094523519E+01  0.156209953313818E+01
2  -0.601646415085467E+01  0.573171800365627E+01  0.180508470316786E+01
2  -0.664860316378805E+01  0.481594317371570E+01  0.209278486240817E+01
2  -0.734243603422379E+01  0.399738420530136E+01  0.227797431917158E+01
2  -0.767581730822367E+01  0.292883541123805E+01  0.248032819986514E+01
2  -0.783387140652563E+01  0.180934705298309E+01  0.267070308112567E+01
2  -0.812789195175615E+01  0.690284301353827E+00  0.295225609210871E+01
2  -0.801229933367140E+01 -0.414224250368590E+00  0.298414082820181E+01
2  -0.775735427564290E+01 -0.151038818087920E+01  0.302048918805873E+01
2  -0.762577714637180E+01 -0.262080663402280E+01  0.313041511828545E+01
2  -0.705694260624161E+01 -0.361679030727426E+01  0.309086925670253E+01
2  -0.657722200863264E+01 -0.464634351097343E+01  0.320311353894023E+01
2  -0.577537362708185E+01 -0.540531192463441E+01  0.309268229471164E+01
2  -0.491487839956677E+01 -0.609101918327315E+01  0.298940578430572E+01
2  -0.398061584536712E+01 -0.659667231703978E+01  0.274183923159693E+01
2  -0.309386601052008E+01 -0.729709969129410E+01  0.262066841461979E+01
2  -0.205613341172720E+01 -0.760673111661547E+01  0.233198585663372E+01
2  -0.986298460395295E+00 -0.782021116075923E+01  0.211576524247373E+01
2   0.764006313701753E-01 -0.763660811360682E+01  0.183404742721164E+01
2   0.113783233551670E+01 -0.766992949643066E+01  0.160225301782768E+01
2   0.216358368091347E+01 -0.732410819019803E+01  0.135139507187436E+01
2   0.317779813037273E+01 -0.717670924433107E+01  0.935158249652975E+00
2   0.397309229407505E+01 -0.637053842833437E+01  0.931631711166727E+00
2   0.464883497588945E+01 -0.551214495599866E+01  0.668980819773796E+00
2   0.553459836005247E+01 -0.476654448498997E+01  0.633745951456081E+00
2   0.606559688932150E+01 -0.371193012403757E+01  0.226629929015464E+00
2   0.614963579471361E+01 -0.262730466834224E+01 -0.194029648049984E+00
2   0.702333428930340E+01 -0.202467451499302E+01 -0.551583882018584E+00
2   0.762015679507487E+01 -0.109685037710126E+01 -0.586296849483111E+00
2   0.706485908037400E+01 -0.316643793646045E-01 -0.160861954781368E+01
2   0.710162795670598E+01  0.103687369223122E+01 -0.190674373324847E+01
2   0.700211036435148E+01  0.211679678514675E+01 -0.202894518059755E+01
2   0.612210338397550E+01  0.283865303062431E+01 -0.207457899459825E+01
2   0.623514438865820E+01  0.389261013521610E+01 -0.170843507182601E+01
2   0.552435452385808E+01  0.481488331456084E+01 -0.183594168128450E+01
2   0.467385758908617E+01  0.558223184645668E+01 -0.159072841244482E+01
2   0.390526992367656E+01  0.632299515531500E+01 -0.132964096835305E+01
2   0.295811757087356E+01  0.691588028738011E+01 -0.148340655974262E+01
2   0.193538834593064E+01  0.725775891700473E+01 -0.160701701885280E+01
2   0.113301051422873E+01  0.781042712697223E+01 -0.119715282442462E+01
2   0.771310492781293E-01  0.765243513157374E+01 -0.101513200474887E+01
2  -0.100123461397665E+01  0.765940093289328E+01 -0.771280166242401E+00
2  -0.209395265055580E+01  0.772749016109853E+01 -0.474573887149838E+00
2  -0.316672538649382E+01  0.755712440264077E+01 -0.218416863759128E+00
2  -0.416258023236988E+01  0.727021144525786E+01  0.101252020267116E+00
2  -0.506036637852557E+01  0.657355796813968E+01  0.496841121986038E+00
2  -0.566954544045937E+01  0.567479688327515E+01  0.755564883834796E+00
2  -0.678955367757670E+01  0.528201724579176E+01  0.106605724965278E+01
2  -0.715026227031653E+01  0.422152423405376E+01  0.121187045678798E+01
2  -0.784257596491766E+01  0.333997888263494E+01  0.147706830314044E+01
2  -0.810655034561375E+01  0.222270048495256E+01  0.166991069350581E+01
2  -0.826364602804136E+01  0.111570656095219E+01  0.185074976360109E+01
2  -0.840914791233761E+01  0.133588235612464E-01  0.206642385468164E+01
2  -0.834138311564320E+01 -0.111005238521910E+01  0.215388392225029E+01
2  -0.805451853830586E+01 -0.218245641670822E+01  0.210770409823778E+01
2  -0.755673233234431E+01 -0.329243195563485E+01  0.218597010763361E+01
2  -0.718191283572919E+01 -0.435043144722958E+01  0.230242256490086E+01
2  -0.654298093356515E+01 -0.525562477773856E+01  0.227793105997901E+01
2  -0.576407254813255E+01 -0.607904732448148E+01  0.222217984060922E+01
2  -0.473710927223563E+01 -0.644206251506585E+01  0.196826747981300E+01
2  -0.396078325533003E+01 -0.722615874911147E+01  0.186873469311168E+01
2  -0.286140382930735E+01 -0.755849782545270E+01  0.155033488235203E+01
2  -0.184525269486571E+01 -0.807615170152993E+01  0.135490902587738E+01
2  -0.771451995038201E+00 -0.803606145164423E+01  0.104319715247041E+01
2   0.304396025904447E+00 -0.806847675809668E+01  0.779777786735872E+00
2   0.131084312878351E+01 -0.769080841457631E+01  0.489850879452022E+00
2   0.233229718161001E+01 -0.791240704782299E+01  0.262022230980394E+00
2   0.304346274803198E+01 -0.721546349526494E+01 -0.215002447964490E+00
2   0.405689190129939E+01 -0.674267116969485E+01 -0.156533652331172E+00
2   0.471922133948059E+01 -0.587689819293756E+01 -0.400965065939019E+00
2   0.546830754365166E+01 -0.503766231276083E+01 -0.476811722290565E+00
2   0.592569321138175E+01 -0.403904697782691E+01 -0.791672656365416E+00
2   0.642157748254186E+01 -0.314149578083341E+01 -0.119048644128236E+01
2   0.671874083139626E+01 -0.215960320972844E+01 -0.159617848547309E+01
2   0.723269376741383E+01 -0.111936595968879E+01 -0.168799492084498E+01
2   0.723680429228721E+01 -0.208788387760430E+00 -0.272506332953308E+01
2   0.710255336595142E+01  0.885858258770373E+00 -0.304858132168617E+01
2   0.705000882851061E+01  0.202668310872228E+01 -0.308383173149742E+01
2   0.612918417233604E+01  0.269350924247173E+01 -0.319771259074353E+01
2   0.570921084228039E+01  0.363896884848313E+01 -0.281087468721467E+01
2   0.513315133853481E+01  0.459732832384375E+01 -0.284704531045389E+01
2   0.443204557750276E+01  0.545680208929438E+01 -0.282563057198767E+01
2   0.350949758914028E+01  0.595250870506379E+01 -0.241904507100138E+01
2   0.270983887388440E+01  0.672875606170317E+01 -0.249943836381081E+01
2   0.208989205216851E+01  0.763616226733023E+01 -0.267387227561257E+01
2   0.102938200533918E+01  0.744588248490152E+01 -0.237865760827010E+01
2  -0.115637755927463E+00  0.778405368793906E+01 -0.215040013152278E+01
2  -0.119350453341598E+01  0.767190876391341E+01 -0.188891699777375E+01
2  -0.230891876219226E+01  0.764366878507759E+01 -0.158205084932591E+01
2  -0.332372314700764E+01  0.731305271290796E+01 -0.138286239748921E+01
2  -0.432421359084680E+01  0.690722550425928E+01 -0.100439587700146E+01
2  -0.521113803634806E+01  0.627388682096191E+01 -0.684968331502998E+00
2  -0.601873503170331E+01  0.564036499051509E+01 -0.310883889351354E+00
2  -0.685463945175541E+01  0.496550072933841E+01 -0.748367510533305E-01
2  -0.760977774420435E+01  0.403898614170665E+01  0.133590802424127E+00
2  -0.810297103206144E+01  0.307114170779055E+01  0.391460428511732E+00
2  -0.825458553090699E+01  0.196959589151859E+01  0.451751565858198E+00
2  -0.862779365218017E+01  0.935221227130532E+00  0.675257023583158E+00
2  -0.856457133251085E+01 -0.250850961797080E+00  0.825466476174175E+00
2  -0.870660597912843E+01 -0.135972864977430E+01  0.933415219039406E+00
2  -0.858562450387204E+01 -0.244820627208052E+01  0.967899679343640E+00
2  -0.776968142798761E+01 -0.319001358667001E+01  0.106613244697165E+01
2  -0.735505938364400E+01 -0.431969182553221E+01  0.115624314758656E+01
2  -0.671466081086173E+01 -0.525273587862512E+01  0.116962507697531E+01
2  -0.595725242707959E+01 -0.619900812704927E+01  0.106122508337177E+01
2  -0.492154106396369E+01 -0.681881563837956E+01  0.909144266689758E+00
2  -0.409980799759148E+01 -0.751725639957963E+01  0.635356061968658E+00
2  -0.304995464627751E+01 -0.783641159982627E+01  0.434532961693460E+00
2  -0.184628420558593E+01 -0.808378041221429E+01  0.182674911338574E+00
2  -0.864730432178704E+00 -0.856171481325888E+01 -0.544539415282304E-01
2   0.235811038446173E+00 -0.836910256773544E+01 -0.380276020940756E+00
2   0.113822429454488E+01 -0.768626296623278E+01 -0.620756131853081E+00
2   0.201696697312816E+01 -0.827910048427233E+01 -0.843936593509892E+00
2   0.282644394494593E+01 -0.766192108372699E+01 -0.119956178637393E+01
2   0.354897012627839E+01 -0.679549162680879E+01 -0.115165872802953E+01
2   0.423743504263055E+01 -0.598346574656923E+01 -0.146522486339219E+01
2   0.510793496349525E+01 -0.531611772134471E+01 -0.154788141710825E+01
2   0.535597322858031E+01 -0.425021499228088E+01 -0.182987351072502E+01
2   0.616430560983767E+01 -0.343948319992358E+01 -0.223377286425475E+01
2   0.643847711665734E+01 -0.245567880071551E+01 -0.267321759115680E+01
2   0.692112818690929E+01 -0.141159921454610E+01 -0.273704617394409E+01
2   0.678211893678916E+01 -0.374314120077924E+00 -0.373831926925007E+01
2   0.644209930991953E+01  0.700950347216423E+00 -0.395739661193210E+01
2   0.659106493908284E+01  0.179330058470716E+01 -0.406870437297380E+01
2   0.596298864876972E+01  0.270987041572644E+01 -0.424929980037139E+01
2   0.518512286963279E+01  0.342654286282533E+01 -0.381257206361146E+01
2   0.449886006870043E+01  0.429894284183245E+01 -0.395104139416053E+01
2   0.402666210165649E+01  0.528854778485271E+01 -0.396192313972430E+01
2   0.309784460255853E+01  0.566092653121638E+01 -0.347272020015084E+01
2   0.226866221502782E+01  0.648477383158139E+01 -0.359216337124484E+01
2   0.126205310060262E+01  0.693423049385897E+01 -0.340783310656415E+01
2   0.193412568821712E+00  0.716455023875650E+01 -0.311116973601957E+01
2  -0.894294654737625E+00  0.721706220077399E+01 -0.286931179644615E+01
2  -0.196027292024507E+01  0.752612144257246E+01 -0.265158633743977E+01
2  -0.292587841434534E+01  0.704874670751346E+01 -0.235021434113973E+01
2  -0.384829926314754E+01  0.657614787711819E+01 -0.206374801716274E+01
2  -0.487841603557738E+01  0.629600845140756E+01 -0.177951677022370E+01
2  -0.593871824699791E+01  0.592878107408010E+01 -0.153611828725513E+01
2  -0.666819752835014E+01  0.518972295102934E+01 -0.116579926745625E+01
2  -0.742456663337426E+01  0.440623495989094E+01 -0.938960731020966E+00
2  -0.806638409690556E+01  0.345862016718380E+01 -0.722120361955478E+00
2  -0.847338806076859E+01  0.243676165261278E+01 -0.514614143522631E+00
2  -0.876122095882804E+01  0.136993794032541E+01 -0.343155578881359E+00
2  -0.872574277584696E+01  0.245132189990358E+00 -0.192632842468051E+00
2  -0.890828431799292E+01 -0.840825892328887E+00 -0.636711571880102E-01
2  -0.874314060482402E+01 -0.196729088409020E+01 -0.303946464184746E-01
2  -0.834526597929120E+01 -0.299160455150792E+01  0.325619596490838E-01
2  -0.777871146805465E+01 -0.393019905010277E+01  0.196703642303439E+00
2  -0.735278295656459E+01 -0.503863917245192E+01  0.277385309262109E+00
2  -0.645105308293648E+01 -0.575260020056732E+01  0.189136946358923E+00
2  -0.555840865680597E+01 -0.643234705885484E+01  0.581816797288312E-01
2  -0.466184793280898E+01 -0.707498721214406E+01 -0.274632450764805E+00